{
  "accuracy": 8,
  "atom": 577,
  "Celsius ; \u00b0C": 271,
  "chemical change": 13,
  "chemical property": 2,
  "chemistry": 95,
  "compound": 243,
  "cubic centimeter ; cm3 or cc": 5,
  "cubic meter ; m3": 4,
  "density": 122,
  "dimensional analysis": 5,
  "element": 181,
  "exact number": 2,
  "extensive property": 6,
  "Fahrenheit": 9,
  "gas": 379,
  "heterogeneous mixture": 3,
  "homogeneous mixture": 3,
  "hypothesis": 9,
  "intensive property": 7,
  "kelvin ; K": 237,
  "kilogram ; kg": 34,
  "law": 132,
  "law of conservation of matter": 4,
  "length": 41,
  "liquid": 228,
  "liter ; L": 139,
  "macroscopic domain": 4,
  "mass": 391,
  "matter": 119,
  "meter ; m": 226,
  "microscopic domain": 6,
  "milliliter ; mL": 88,
  "mixture": 114,
  "molecule": 268,
  "physical change": 5,
  "physical property": 1,
  "plasma": 6,
  "precision": 3,
  "pure substance": 6,
  "rounding": 4,
  "scientific method": 1,
  "second ; s": 638,
  "SI units ; International System of Units": 6,
  "significant figures": 11,
  "solid": 160,
  "symbolic domain": 3,
  "temperature": 696,
  "theory": 97,
  "uncertainty": 13,
  "unit": 147,
  "unit conversion factor": 9,
  "volume": 225,
  "weight": 23,
  "actinide": 4,
  "alkali metal": 12,
  "alkaline earth metal": 8,
  "alpha particle ; \u03b1 particle": 5,
  "anion": 50,
  "atomic mass": 18,
  "atomic mass unit ; amu": 71,
  "atomic number ; Z": 87,
  "binary acid": 0,
  "binary compound": 1,
  "cation": 42,
  "chalcogen": 0,
  "chemical symbol": 1,
  "covalent bond": 50,
  "covalent compound": 7,
  "Dalton ; Da": 19,
  "Dalton\u2019s atomic theory": 6,
  "electron": 363,
  "empirical formula": 41,
  "fundamental unit of charge": 2,
  "group": 208,
  "halogen": 16,
  "hydrate": 3,
  "inert gas": 0,
  "inner transition metal": 2,
  "ion": 341,
  "ionic bond": 2,
  "ionic compound": 45,
  "isomers": 45,
  "isotopes": 44,
  "lanthanide": 4,
  "law of constant composition": 1,
  "law of definite proportions": 3,
  "law of multiple proportions": 5,
  "main-group element": 0,
  "mass number ; A": 4538,
  "metal": 276,
  "metalloid": 8,
  "molecular compound": 2,
  "molecular formula": 22,
  "monatomic ion": 2,
  "neutron": 16,
  "noble gas": 24,
  "nomenclature": 11,
  "nonmetal": 38,
  "nucleus": 106,
  "oxyacid": 12,
  "oxyanion": 0,
  "period": 36,
  "periodic law": 1,
  "periodic table": 53,
  "pnictogen": 0,
  "polyatomic ion": 5,
  "proton": 22,
  "representative element": 0,
  "series": 61,
  "spatial isomers": 1,
  "structural formula": 2,
  "structural isomer": 0,
  "transition metal": 22,
  "unified atomic mass unit ; u": 9,
  "aqueous solution": 32,
  "Avogadro\u2019s number ; NA": 51,
  "concentrated": 36,
  "concentration": 264,
  "dilute": 23,
  "dilution": 7,
  "dissolved": 74,
  "empirical formula mass": 4,
  "formula mass": 18,
  "mass percentage": 7,
  "mass-volume percent": 1,
  "molar mass": 36,
  "molarity ; M": 232,
  "mole": 80,
  "parts per billion ; ppb": 15,
  "parts per million ; ppm": 14,
  "percent composition": 15,
  "solute": 88,
  "solvent": 89,
  "volume percentage": 2,
  "acid": 379,
  "acid-base reaction": 7,
  "actual yield": 2,
  "analyte": 9,
  "balanced equation": 21,
  "base": 109,
  "buret": 1,
  "chemical equation": 19,
  "coefficient": 10,
  "combustion analysis": 4,
  "combustion reaction": 2,
  "complete ionic equation": 1,
  "end point": 8,
  "equivalence point": 12,
  "excess reactant": 2,
  "gravimetric analysis": 3,
  "half-reaction": 30,
  "indicator": 7,
  "insoluble": 23,
  "limiting reactant": 10,
  "molecular equation": 0,
  "net ionic equation": 7,
  "neutralization reaction": 1,
  "oxidation": 196,
  "oxidation number": 40,
  "oxidation-reduction reaction": 3,
  "oxidizing agent": 33,
  "percent yield": 3,
  "precipitate": 26,
  "precipitation reaction": 8,
  "product": 95,
  "quantitative analysis": 1,
  "reactant": 92,
  "reducing agent": 10,
  "reduction": 53,
  "salt": 50,
  "single-displacement reaction": 0,
  "solubility": 184,
  "soluble": 55,
  "spectator ion": 0,
  "stoichiometric factor": 2,
  "stoichiometry": 32,
  "strong acid": 22,
  "strong base": 7,
  "theoretical yield": 4,
  "titrant": 24,
  "titration analysis": 4,
  "weak acid": 18,
  "weak base": 5,
  "bomb calorimeter": 3,
  "calorie ; cal": 6,
  "calorimeter": 30,
  "calorimetry": 4,
  "chemical thermodynamics": 1,
  "endothermic process": 9,
  "energy": 550,
  "enthalpy ; H": 489,
  "enthalpy change ; \u0394H": 24,
  "exothermic process": 9,
  "expansion work ; pressure-volume work": 3,
  "first law of thermodynamics": 2,
  "heat ; q": 257,
  "heat capacity ; C": 195,
  "Hess\u2019s law": 6,
  "hydrocarbon": 16,
  "internal energy ; U": 18,
  "joule ; J": 27,
  "kinetic energy": 28,
  "nutritional calorie ; Calorie": 5,
  "potential energy": 8,
  "specific heat capacity ; c": 186,
  "standard enthalpy of combustion ; \u0394Hc\u00b0 ": 0,
  "standard enthalpy of formation ; \u0394Hf\u00b0 ": 7,
  "standard state": 14,
  "state function": 12,
  "surroundings": 25,
  "system": 135,
  "thermal energy": 21,
  "thermochemistry": 9,
  "work ; w": 61,
  "amplitude": 9,
  "atomic orbital": 5,
  "Aufbau principle": 5,
  "blackbody": 10,
  "Bohr\u2019s model of the hydrogen atom": 1,
  "continuous spectrum": 3,
  "core electron": 3,
  "covalent radius": 6,
  "d orbital": 6,
  "degenerate orbitals": 10,
  "effective nuclear charge": 6,
  "electromagnetic radiation": 18,
  "electromagnetic spectrum": 8,
  "electron affinity": 5,
  "electron configuration": 42,
  "electron density": 37,
  "excited state": 5,
  "f orbital": 2,
  "frequency ; \u03bd": 35,
  "ground state": 6,
  "Heisenberg uncertainty principle": 1,
  "hertz ; Hz": 7,
  "Hund\u2019s rule": 3,
  "intensity": 7,
  "interference pattern": 2,
  "ionization energy": 18,
  "isoelectronic": 6,
  "line spectrum": 1,
  "magnetic quantum number ; ml": 89,
  "node": 14,
  "orbital diagram": 12,
  "p orbital": 18,
  "Pauli exclusion principle": 3,
  "photon": 13,
  "principal quantum number ; n": 225,
  "quantization": 3,
  "quantum mechanics": 4,
  "quantum number": 30,
  "s orbital": 34,
  "secondary  quantum number ; angular momentum quantum number ": 3,
  "shell": 69,
  "spin quantum number ; ms": 7,
  "standing wave": 1,
  "subshell": 31,
  "valence electrons": 53,
  "valence shell": 33,
  "wave": 30,
  "wave-particle duality": 2,
  "wavefunction ; \u03c8": 12,
  "wavelength ; \u03bb": 40,
  "axial position": 1,
  "bond angle": 10,
  "bond dipole moment": 3,
  "bond distance": 5,
  "bond energy": 6,
  "bond length": 3,
  "Born-Haber cycle": 2,
  "dipole moment": 13,
  "double bond": 38,
  "electron-pair geometry": 24,
  "electronegativity": 41,
  "equatorial position": 2,
  "formal charge": 11,
  "free radical": 2,
  "hypervalent molecule": 0,
  "inert pair effect": 6,
  "lattice energy ; \u0394Hlattice": 22,
  "Lewis structure": 33,
  "Lewis symbol": 2,
  "linear": 33,
  "lone pair": 24,
  "molecular structure": 106,
  "octahedral": 41,
  "octet rule": 6,
  "polar covalent bond": 3,
  "polar molecule": 7,
  "pure covalent bond": 2,
  "resonance": 33,
  "resonance forms": 16,
  "resonance hybrid": 4,
  "single bond": 14,
  "tetrahedral": 46,
  "trigonal bipyramidal": 10,
  "trigonal planar": 23,
  "triple bond": 14,
  "valence shell electron-pair repulsion theory ; VSEPR": 22,
  "vector": 1,
  "antibonding orbital": 5,
  "bond order": 23,
  "bonding orbital": 6,
  "diamagnetism": 0,
  "homonuclear diatomic molecule": 0,
  "hybrid orbital": 5,
  "hybridization": 48,
  "linear combination of atomic orbitals": 2,
  "molecular orbital": 33,
  "molecular orbital diagram": 5,
  "molecular orbital theory": 9,
  "overlap": 47,
  "paramagnetism": 5,
  "pi bond ; \u03c0 bond": 18,
  "s-p mixing": 5,
  "sigma bond ; \u03c3 bond": 17,
  "sp hybrid orbital": 2,
  "sp2 hybrid orbital": 0,
  "sp3 hybrid orbital": 0,
  "sp3d hybrid orbital": 0,
  "sp3d2 hybrid orbital": 0,
  "valence bond theory": 18,
  "\u03c0 bonding orbital": 0,
  "\u03c0* bonding orbital": 0,
  "\u03c3 bonding orbital": 1,
  "\u03c3* bonding orbital": 0,
  "absolute zero": 3,
  "Amontons\u2019s law": 1,
  "atmosphere ; atm": 94,
  "Avogadro\u2019s law": 3,
  "bar": 10,
  "barometer": 7,
  "Boyle\u2019s law": 6,
  "Charles\u2019s law": 5,
  "compressibility factor ; Z": 41,
  "Dalton\u2019s law of partial pressures": 0,
  "diffusion": 10,
  "effusion": 2,
  "Graham\u2019s law of effusion": 0,
  "hydrostatic pressure": 3,
  "ideal gas": 34,
  "ideal gas constant ; R": 12,
  "ideal gas law": 15,
  "kinetic molecular theory": 3,
  "manometer": 9,
  "mean free path": 1,
  "mole fraction ; X": 63,
  "partial pressure": 13,
  "pascal ; Pa": 5,
  "pounds per square inch ; psi": 8,
  "pressure": 336,
  "rate of diffusion": 2,
  "root mean square velocity ; urms": 0,
  "standard conditions of temperature and pressure ; STP": 5,
  "standard molar volume": 1,
  "torr": 19,
  "van der Waals equation": 6,
  "vapor pressure of water": 3,
  "adhesive force": 1,
  "amorphous solid": 1,
  "body-centered cubic  solid; BCC solid": 0,
  "body-centered cubic unit cell": 1,
  "boiling point": 76,
  "Bragg equation": 2,
  "capillary action": 5,
  "Clausius-Clapeyron equation": 4,
  "cohesive force": 0,
  "condensation": 17,
  "coordination number": 38,
  "covalent network solid": 2,
  "critical point": 2,
  "crystalline solid": 15,
  "cubic closest packing ; CCP": 9,
  "deposition": 5,
  "diffraction": 6,
  "dipole-dipole attraction": 5,
  "dispersion force": 3,
  "dynamic equilibrium": 1,
  "face-centered cubic  solid; FCC solid": 0,
  "face-centered cubic unit cell": 1,
  "freezing": 35,
  "freezing point": 22,
  "hexagonal closest packing ; HCP": 6,
  "hole": 12,
  "hydrogen bonding": 16,
  "induced dipole": 1,
  "instantaneous dipole": 0,
  "intermolecular force": 0,
  "interstitial sites": 1,
  "ionic solid": 2,
  "isomorphous": 2,
  "melting": 55,
  "melting point": 20,
  "metallic solid": 2,
  "molecular solid": 0,
  "normal boiling point": 4,
  "octahedral hole": 2,
  "phase diagram": 10,
  "polarizability": 2,
  "simple cubic structure": 7,
  "simple cubic unit cell": 5,
  "space lattice": 2,
  "sublimation": 10,
  "supercritical fluid": 3,
  "surface tension": 6,
  "tetrahedral hole": 1,
  "triple point": 3,
  "unit cell": 48,
  "vacancy": 3,
  "van der Waals force": 0,
  "vapor pressure": 50,
  "vaporization": 31,
  "viscosity": 5,
  "X-ray crystallography": 1,
  "alloy": 3,
  "amphiphilic": 1,
  "boiling point elevation": 7,
  "boiling point elevation constant": 0,
  "colligative property": 1,
  "colloid": 5,
  "crenation": 1,
  "dispersed phase": 2,
  "dispersion medium": 2,
  "dissociation": 15,
  "electrolyte": 8,
  "emulsifying agent": 2,
  "emulsion": 5,
  "freezing point depression": 5,
  "freezing point depression constant": 1,
  "gel": 4,
  "hemolysis": 1,
  "Henry\u2019s law": 5,
  "hypertonic": 1,
  "hypotonic": 1,
  "ideal solution": 15,
  "immiscible": 6,
  "ion pair": 2,
  "ion-dipole attraction": 1,
  "isotonic": 1,
  "miscible": 10,
  "molality ; m": 218,
  "nonelectrolyte": 4,
  "osmosis": 10,
  "osmotic pressure ; \u03a0": 83,
  "partially miscible": 2,
  "Raoult\u2019s law": 2,
  "saturated": 20,
  "semipermeable membrane": 1,
  "solvation": 5,
  "spontaneous process": 9,
  "strong electrolyte": 1,
  "supersaturated": 6,
  "suspension": 1,
  "Tyndall effect": 1,
  "unsaturated": 6,
  "van\u2019t Hoff factor ; i": 46,
  "weak electrolyte": 1,
  "activated complex": 2,
  "activation energy ; Ea": 28,
  "Arrhenius equation": 3,
  "average rate": 2,
  "bimolecular reaction": 0,
  "catalyst": 18,
  "collision theory": 3,
  "elementary reaction": 9,
  "frequency factor ; A": 4523,
  "half-life of a reaction ; tl/2": 1,
  "heterogeneous catalyst": 1,
  "homogeneous catalyst": 1,
  "initial rate": 1,
  "instantaneous rate": 6,
  "integrated rate law": 8,
  "intermediate": 18,
  "method of initial rates": 1,
  "molecularity": 1,
  "overall reaction order": 1,
  "rate constant ; k": 238,
  "rate expression": 0,
  "rate law": 47,
  "rate of reaction": 1,
  "rate-determining step": 3,
  "reaction diagram": 1,
  "reaction mechanism": 10,
  "reaction order": 2,
  "termolecular reaction": 1,
  "unimolecular reaction": 3,
  "equilibrium": 244,
  "equilibrium constant ; K": 257,
  "heterogeneous equilibria": 0,
  "homogeneous equilibria": 1,
  "law of mass action": 5,
  "Le Ch\u00e2telier\u2019s principle": 5,
  "reaction quotient ; Q": 81,
  "reversible reaction": 5,
  "acid ionization": 11,
  "acid ionization constant ; Ka": 2,
  "acid-base indicator": 1,
  "acidic": 35,
  "amphiprotic": 4,
  "amphoteric": 7,
  "autoionization": 5,
  "base ionization": 7,
  "base ionization constant ; Kb": 1,
  "basic": 52,
  "Br\u00f8nsted-Lowry acid": 1,
  "Br\u00f8nsted-Lowry base": 0,
  "buffer": 25,
  "buffer capacity": 3,
  "color-change interval": 0,
  "conjugate acid": 5,
  "conjugate base": 10,
  "diprotic acid": 6,
  "diprotic base": 1,
  "Henderson-Hasselbalch equation": 2,
  "ion-product constant for water ; Kw": 1,
  "leveling effect": 1,
  "monoprotic acid": 0,
  "neutral": 50,
  "percent ionization": 7,
  "pH": 81,
  "pOH": 7,
  "stepwise ionization": 1,
  "titration curve": 3,
  "triprotic acid": 0,
  "common ion effect": 1,
  "complex ion": 9,
  "coordinate covalent bond": 3,
  "coupled equilibria": 1,
  "dissociation constant": 2,
  "Kd": 0,
  "formation constant": 3,
  "Kf": 0,
  "Lewis acid": 7,
  "Lewis acid-base adduct": 1,
  "Lewis acid-base chemistry": 1,
  "Lewis base": 7,
  "ligand": 62,
  "molar solubility": 10,
  "selective precipitation": 0,
  "solubility product constant ; Ksp": 1,
  "entropy ; S": 633,
  "Gibbs free energy change ; G": 195,
  "microstate": 2,
  "nonspontaneous process": 3,
  "reversible process": 3,
  "second law of thermodynamics": 1,
  "spontaneous change": 2,
  "standard entropy ; S\u00b0": 3,
  "standard entropy change ; \u0394S\u00b0": 2,
  "standard free energy change ; \u0394G\u00b0": 8,
  "standard free energy of formation ; \u0394Gf\u00b0 ": 2,
  "third law of thermodynamics": 1,
  "active electrode": 0,
  "alkaline battery": 3,
  "anode": 20,
  "battery": 17,
  "cathode": 25,
  "cathodic protection": 3,
  "cell notation ; schematic": 3,
  "cell potential ; Ecell": 19,
  "concentration cell": 4,
  "corrosion": 18,
  "dry cell": 4,
  "electrode potential ; EX": 1,
  "electrolysis": 30,
  "electrolytic cell": 1,
  "Faraday\u2019s constant ; F": 52,
  "fuel cell": 3,
  "galvanic  cell; voltaic cell": 9,
  "galvanization": 1,
  "half cell": 0,
  "inert electrode": 1,
  "lead acid battery": 2,
  "lithium ion battery": 0,
  "Nernst equation": 3,
  "nickel-cadmium battery": 0,
  "primary cell": 0,
  "sacrificial anode": 1,
  "salt bridge": 4,
  "secondary cell": 0,
  "standard cell potential ; Ecell\u00b0 ": 6,
  "standard electrode potential EX\u00b0 ;  EX\u00b0 ": 0,
  "standard hydrogen electrode ; SHE": 7,
  "acid anhydride": 0,
  "allotropes": 12,
  "amorphous": 17,
  "base anhydride": 0,
  "bicarbonate anion": 1,
  "bismuth": 2,
  "borate": 2,
  "carbonate": 50,
  "chemical reduction": 7,
  "chlor-alkali process": 4,
  "disproportionation reaction": 2,
  "Downs cell": 2,
  "Frasch process": 1,
  "Haber process": 1,
  "halide": 16,
  "Hall\u2013H\u00e9roult cell": 3,
  "hydrogen carbonate": 4,
  "hydrogen halide": 3,
  "hydrogen sulfate": 0,
  "hydrogen sulfite": 4,
  "hydrogenation": 2,
  "hydroxide": 97,
  "interhalogen": 3,
  "metal ; representative": 308,
  "nitrate": 33,
  "nitrogen fixation": 3,
  "Ostwald process": 1,
  "oxide": 117,
  "ozone": 33,
  "passivation": 7,
  "peroxide": 13,
  "photosynthesis": 6,
  "Pidgeon process": 1,
  "polymorph": 0,
  "representative metal": 1,
  "silicate": 7,
  "sulfate": 14,
  "sulfite": 8,
  "superoxide": 0,
  "actinide series": 3,
  "bidentate ligand": 1,
  "central metal": 20,
  "chelate": 5,
  "chelating ligand": 2,
  "cis configuration": 1,
  "coordination compound": 8,
  "coordination sphere": 7,
  "crystal field splitting ; \u0394oct": 6,
  "crystal field theory": 3,
  "d-block element": 0,
  "donor atom": 3,
  "eg orbitals": 0,
  "f-block element": 0,
  "first transition series": 13,
  "fourth transition series": 2,
  "geometric isomers": 5,
  "high-spin complex": 1,
  "hydrometallurgy": 1,
  "ionization isomer": 0,
  "lanthanide series": 2,
  "linkage isomer": 0,
  "low-spin complex": 1,
  "monodentate": 2,
  "optical isomer": 1,
  "pairing energy ; P": 215,
  "platinum metals": 1,
  "polydentate ligand": 3,
  "rare earth element": 0,
  "second transition series": 1,
  "smelting": 5,
  "spectrochemical series": 0,
  "steel": 15,
  "strong-field ligand": 1,
  "superconductor": 0,
  "t2g orbitals": 0,
  "third transition series": 4,
  "trans configuration": 1,
  "weak-field ligand": 0,
  "addition reaction": 2,
  "alcohol": 23,
  "aldehyde": 4,
  "alkane": 11,
  "alkene": 5,
  "alkyl group": 5,
  "alkyne": 1,
  "amide": 1,
  "amine": 7,
  "aromatic hydrocarbon": 2,
  "carbonyl group": 12,
  "carboxylic acid": 7,
  "ester": 3,
  "ether": 13,
  "functional group": 7,
  "ketone": 6,
  "organic compound": 0,
  "saturated hydrocarbon": 0,
  "skeletal structure": 1,
  "substituent": 8,
  "substitution reaction": 3,
  "alpha  decay; \u03b1 decay": 3,
  "alpha particle": 2,
  "4He": 0,
  "4\u03b1": 0,
  "antimatter": 1,
  "band of stability": 11,
  "becquerel ; Bq": 6,
  "beta  decay; \u03b2 decay": 8,
  "beta particle": 1,
  "\u22121": 26,
  "0 e": 0,
  "0 \u03b2": 0,
  "binding energy per nucleon": 5,
  "chain reaction": 10,
  "chemotherapy": 2,
  "containment system": 1,
  "control rod": 0,
  "critical mass": 4,
  "curie ; Ci": 8,
  "daughter nuclide": 8,
  "electron capture": 7,
  "electron volt ; eV": 1,
  "external beam radiation therapy": 1,
  "fissile ; or fissionable": 3,
  "fission": 36,
  "fusion": 24,
  "fusion reactor": 1,
  "gamma  emission; \u03b3 emission": 3,
  "gamma ray": 1,
  "0\u03b3": 0,
  "Geiger counter": 1,
  "gray ; Gy": 9,
  "half-life ; t1/2": 34,
  "internal radiation therapy": 2,
  "ionizing radiation": 3,
  "magic number": 0,
  "mass defect": 9,
  "mass-energy equivalence equation": 4,
  "millicurie ; mCi": 2,
  "nonionizing radiation": 2,
  "nuclear binding energy": 2,
  "nuclear chemistry": 6,
  "nuclear fuel": 3,
  "nuclear moderator": 2,
  "nuclear reaction": 6,
  "nuclear reactor": 9,
  "nuclear transmutation": 1,
  "nucleon": 5,
  "nuclide": 37,
  "parent nuclide": 7,
  "particle accelerator": 1,
  "positron": 10,
  "0 \u03b2 or +1": 0,
  "positron emission": 7,
  "radiation absorbed dose ; rad": 4,
  "radiation dosimeter": 0,
  "radiation therapy": 6,
  "radioactive decay": 16,
  "radioactive decay series": 1,
  "radioactive tracer": 1,
  "radioactivity": 6,
  "radiocarbon dating": 1,
  "radioisotope": 6,
  "radiometric dating": 2,
  "reactor coolant": 2,
  "relative biological effectiveness ; RBE": 1,
  "roentgen equivalent man ; rem": 2,
  "scintillation counter": 1,
  "sievert ; Sv": 3,
  "strong nuclear force": 3,
  "subcritical mass": 1,
  "supercritical mass": 3,
  "transmutation reaction": 1,
  "transuranium element": 0
}