{
  "birefringent": 3,
  "Brewster\u2019s angle": 5,
  "Brewster\u2019s law": 1,
  "corner reflector": 3,
  "critical angle": 12,
  "Malus\u2019s law": 1,
  "direction of polarization": 4,
  "dispersion": 16,
  "fiber optics": 3,
  "geometric optics": 12,
  "horizontally polarized": 4,
  "Huygens\u2019s principle": 12,
  "index of refraction": 51,
  "law of reflection": 12,
  "law of refraction": 8,
  "optically active": 2,
  "polarization": 23,
  "polarized": 28,
  "ray": 153,
  "refraction": 102,
  "total internal reflection": 10,
  "unpolarized": 6,
  "vertically polarized": 3,
  "wave optics": 4,
  "aberration": 13,
  "accommodation": 1,
  "angular magnification": 13,
  "apparent depth": 3,
  "Cassegrain design": 1,
  "charge-coupled device ; CCD": 8,
  "coma": 3,
  "compound microscope": 3,
  "concave mirror": 15,
  "converging  lens; or convex lens": 16,
  "convex mirror": 8,
  "curved mirror": 3,
  "diverging  lens; or concave lens": 11,
  "eyepiece": 28,
  "far point": 5,
  "farsightedness ; or hyperopia": 3,
  "first focus or object focus": 0,
  "focal length": 61,
  "focal plane": 9,
  "focal point": 41,
  "image distance": 42,
  "linear magnification": 6,
  "magnification": 66,
  "near point": 17,
  "nearsightedness ; or myopia": 4,
  "net magnification": 0,
  "Newtonian design": 1,
  "object distance": 22,
  "objective": 23,
  "optical axis": 50,
  "optical power": 15,
  "plane mirror": 7,
  "ray tracing": 30,
  "real image": 8,
  "second focus or image focus": 1,
  "simple magnifier ; or magnifying glass": 1,
  "small-angle approximation": 10,
  "spherical aberration": 7,
  "thin-lens approximation": 1,
  "vertex": 7,
  "virtual image": 10,
  "coherent waves": 2,
  "fringes": 37,
  "incoherent": 2,
  "interferometer": 6,
  "monochromatic": 32,
  "Newton\u2019s rings": 2,
  "order": 35,
  "principal maximum": 0,
  "secondary maximum": 1,
  "thin-film interference": 17,
  "Bragg planes": 1,
  "destructive interference for a single slit": 1,
  "diffraction": 116,
  "diffraction grating": 14,
  "diffraction limit": 5,
  "hologram": 8,
  "holography": 5,
  "missing order": 2,
  "Rayleigh criterion": 4,
  "resolution": 24,
  "two-slit diffraction pattern": 0,
  "width of the central peak": 1,
  "X-ray diffraction": 5,
  "classical  velocity addition; Galilean velocity addition": 1,
  "event": 30,
  "first postulate of special relativity": 0,
  "Galilean relativity": 0,
  "Galilean transformation": 4,
  "inertial frame of reference": 2,
  "length contraction": 5,
  "Lorentz transformation": 13,
  "Michelson-Morley experiment": 2,
  "proper length": 4,
  "proper time": 9,
  "\u0394\u03c4": 0,
  "relativistic kinetic energy": 3,
  "p\u2192": 0,
  "relativistic momentum": 8,
  "relativistic velocity addition": 5,
  "rest energy": 10,
  "u\u2192": 0,
  "rest frame": 12,
  "rest mass": 24,
  "second postulate of special relativity": 1,
  "special theory of relativity": 9,
  "speed of light": 69,
  "time dilation": 12,
  "total energy": 48,
  "world line": 11,
  "absorber": 2,
  "absorption spectrum": 5,
  "Balmer formula": 4,
  "Balmer series": 4,
  "blackbody": 31,
  "blackbody radiation": 19,
  "Bohr radius of hydrogen": 0,
  "Bohr\u2019s model of the hydrogen atom": 5,
  "Brackett series": 1,
  "Compton effect": 3,
  "Compton shift": 6,
  "Compton wavelength": 0,
  "cut-off frequency": 8,
  "cut-off wavelength": 4,
  "Davisson\u2013Germer experiment": 3,
  "de Broglie wave": 1,
  "de Broglie\u2019s hypothesis of matter waves": 1,
  "double-slit interference experiment": 1,
  "electron microscopy": 2,
  "emission spectrum": 7,
  "emitter": 4,
  "energy of a photon": 1,
  "energy spectrum of hydrogen": 1,
  "excited energy states of the H atom": 0,
  "Fraunhofer lines": 1,
  "ground state energy of the hydrogen atom": 1,
  "group velocity": 2,
  "Heisenberg uncertainty principle": 2,
  "Humphreys series": 1,
  "hydrogen-like atom": 1,
  "inelastic scattering": 2,
  "ionization energy": 6,
  "ionization limit of the hydrogen atom": 1,
  "Lyman series": 3,
  "nuclear model of the atom": 2,
  "Paschen series": 1,
  "Pfund series": 1,
  "photocurrent": 14,
  "photoelectric effect": 16,
  "photoelectrode": 6,
  "photoelectron": 8,
  "photon": 107,
  "Planck\u2019s hypothesis of energy quanta": 0,
  "postulates of Bohr\u2019s model": 1,
  "power intensity": 1,
  "propagation vector": 1,
  "quantized energies": 1,
  "quantum number": 41,
  "quantum phenomenon": 1,
  "quantum state of a Planck\u2019s oscillator": 0,
  "reduced Planck\u2019s constant": 0,
  "Rutherford\u2019s gold foil experiment": 0,
  "Rydberg constant for hydrogen": 1,
  "Rydberg formula": 6,
  "scattering angle": 5,
  "Stefan\u2013Boltzmann constant": 0,
  "stopping potential": 10,
  "wave number": 6,
  "wave quantum mechanics": 1,
  "wave-particle duality": 3,
  "work function": 10,
  "\u03b1 -particle": 0,
  "\u03b1 -ray": 0,
  "\u03b2-ray": 1,
  "\u03b3-ray": 0,
  "anti-symmetric function": 1,
  "Born interpretation": 0,
  "complex function": 1,
  "Copenhagen interpretation": 1,
  "correspondence principle": 5,
  "energy levels": 35,
  "energy quantum number": 1,
  "energy-time uncertainty principle": 1,
  "even function": 9,
  "expectation value": 11,
  "field emission": 2,
  "ground state energy": 6,
  "Heisenberg\u2019s uncertainty principle": 7,
  "infinite square well": 4,
  "momentum operator": 5,
  "nanotechnology": 0,
  "normalization condition": 5,
  "odd function": 9,
  "position operator": 3,
  "potential barrier": 18,
  "principal quantum number": 7,
  "probability density": 18,
  "quantum dot": 3,
  "quantum tunneling": 9,
  "resonant tunneling": 1,
  "resonant-tunneling diode": 1,
  "scanning tunneling microscope ; STM": 5,
  "Schr\u04e7dinger\u2019s time-dependent equation": 0,
  "Schr\u04e7dinger\u2019s time-independent equation": 0,
  "standing wave state": 1,
  "state reduction": 0,
  "stationary state": 0,
  "time-modulation factor": 2,
  "transmission probability": 2,
  "tunnel diode": 3,
  "tunneling probability": 6,
  "wave function": 87,
  "wave function collapse": 0,
  "wave packet": 11,
  "angular momentum orbital quantum number ; l": 78,
  "angular momentum projection quantum number ; m": 80,
  "atomic orbital": 1,
  "Bohr magneton": 1,
  "braking radiation": 5,
  "chemical group": 2,
  "coherent light": 2,
  "covalent bond": 10,
  "electron configuration": 6,
  "fine structure": 2,
  "fluorescence": 3,
  "hyperfine structure": 1,
  "ionic bond": 8,
  "laser": 32,
  "magnetic orbital quantum number": 0,
  "magnetogram": 1,
  "metastable state": 5,
  "Moseley plot": 1,
  "Moseley\u2019s law": 1,
  "orbital magnetic dipole moment": 2,
  "Pauli\u2019s exclusion principle": 7,
  "population inversion": 1,
  "principal quantum number ; n": 103,
  "radial probability density function": 1,
  "selection rules": 3,
  "spin projection quantum number ;  ms ": 2,
  "spin quantum number ; s": 445,
  "spin-flip transitions": 1,
  "spin-orbit coupling": 5,
  "stimulated emission": 1,
  "transition metal": 0,
  "valence electron": 4,
  "Zeeman effect": 0,
  "acceptor impurity": 1,
  "amplifier": 1,
  "base current": 2,
  "BCS theory": 5,
  "body-centered cubic ; BCC": 3,
  "breakdown voltage": 1,
  "collector current": 2,
  "conduction band": 18,
  "Cooper pair": 4,
  "critical magnetic field": 2,
  "critical temperature": 6,
  "density of states": 5,
  "depletion layer": 4,
  "dissociation energy": 15,
  "donor impurity": 1,
  "doping": 5,
  "drift velocity": 2,
  "electric dipole transition": 1,
  "electron affinity": 2,
  "electron number density": 2,
  "energy band": 8,
  "energy gap": 8,
  "equilibrium separation distance": 7,
  "exchange symmetry": 4,
  "face-centered cubic ; FCC": 6,
  "Fermi energy": 12,
  "Fermi factor": 3,
  "Fermi temperature": 3,
  "forward bias configuration": 3,
  "free electron model": 5,
  "hole": 13,
  "hybridization": 4,
  "impurity atom": 1,
  "impurity band": 3,
  "junction transistor": 3,
  "lattice": 22,
  "Madelung constant": 7,
  "majority carrier": 0,
  "minority carrier": 0,
  "n-type semiconductor": 0,
  "p-n junction": 6,
  "p-type semiconductor": 0,
  "polyatomic molecule": 1,
  "repulsion constant": 3,
  "reverse bias configuration": 4,
  "rotational energy level": 2,
  "selection rule": 8,
  "semiconductor": 33,
  "simple cubic": 1,
  "type I superconductor": 1,
  "type II superconductor": 1,
  "valence band": 12,
  "van der Waals bond": 1,
  "vibrational energy level": 1,
  "activity": 22,
  "alpha  rays; \u03b1 rays": 1,
  "alpha decay": 4,
  "antielectrons": 1,
  "antineutrino": 2,
  "atomic mass": 7,
  "atomic mass unit": 1,
  "atomic nucleus": 11,
  "atomic number": 26,
  "becquerel ; Bq": 6,
  "beta  rays;  \u03b2  rays": 1,
  "beta decay": 7,
  "binding energy ; BE": 681,
  "binding energy per nucleon ; BEN": 12,
  "breeder reactor": 2,
  "carbon-14 dating": 3,
  "chart of the nuclides": 1,
  "critical mass": 8,
  "criticality": 1,
  "curie ; Ci": 5,
  "daughter nucleus": 5,
  "decay": 120,
  "decay series": 3,
  "fission": 35,
  "gamma  rays;  \u03b3  rays": 1,
  "gamma decay": 2,
  "half-life": 28,
  "high dose": 1,
  "isotopes": 21,
  "lifetime": 11,
  "liquid drop model": 1,
  "decay constant": 10,
  "low dose": 1,
  "mass defect": 4,
  "mass number": 11,
  "moderate dose": 1,
  "neutrino": 15,
  "neutron number": 3,
  "nuclear fusion": 7,
  "nuclear fusion reactor": 1,
  "nucleons": 19,
  "nucleosynthesis": 16,
  "nuclide": 2,
  "parent nucleus": 5,
  "positron": 34,
  "positron emission tomography ; PET": 4,
  "proton-proton chain": 4,
  "radiation dose unit ; rad": 13,
  "radioactive dating": 2,
  "radioactive decay law": 0,
  "radioactive tags": 3,
  "radioactivity": 5,
  "radiopharmaceutical": 2,
  "radius of a nucleus": 1,
  "relative biological effectiveness ; RBE": 5,
  "roentgen equivalent man ; rem": 11,
  "sievert ; Sv": 6,
  "single-photon-emission computed tomography ; SPECT": 2,
  "strong nuclear force": 28,
  "transuranic element": 1,
  "antiparticle": 2,
  "baryon number": 21,
  "baryons": 10,
  "Big Bang": 21,
  "boson": 7,
  "color": 28,
  "cosmic microwave background radiation ; CMBR": 3,
  "cosmology": 4,
  "dark energy": 4,
  "dark matter": 6,
  "mesons": 14,
  "particle accelerator": 3,
  "particle detector": 2,
  "quantum chromodynamics ; QCD": 6,
  "quantum electrodynamics ; QED": 3,
  "electroweak force": 3,
  "fermion": 0,
  "Feynman diagram": 3,
  "fundamental force": 0,
  "gluon": 1,
  "grand unified theory": 2,
  "hadron": 5,
  "Hubble\u2019s constant": 4,
  "Hubble\u2019s law": 4,
  "lepton": 15,
  "lepton number": 11,
  "redshift": 7,
  "Standard Model": 13,
  "strangeness": 23,
  "quark": 41,
  "synchrotron": 4,
  "synchrotron radiation": 1,
  "theory of everything": 3,
  "virtual particle": 1,
  "W and Z boson": 0,
  "weak nuclear force": 15
}